LAMMPS	polymer	brush	data	file	
					
25904	atoms				
22288	bonds				
0	angles				
0	dihedrals				
0	impropers				
					
5	atom types				
2	bond types				
0	angle types				
0	dihedral types				
0	improper types				
					
-60 60 xlo xhi					
-60 60 ylo yhi					
-70 70 zlo zhi					
					
Masses					
					
1	1				
2	1				
3	1				
4	216				
5	216				
					
Atoms					
					
1	1	1	28.6442	0	-18.5714
2	2	1	28.5403	0.0441603	-19.5794
3	3	1	28.2786	-0.715897	-20.1494
4	4	1	28.3325	-0.469914	-21.0964
5	5	1	28.0597	-1.4144	-21.2714
6	6	1	27.4826	-1.24268	-20.4575
7	7	1	27.2182	-0.745136	-19.6905
8	8	1	27.8854	-0.626169	-18.9533
9	9	1	27.7399	0.394603	-19.0347
10	10	1	26.9561	-0.123713	-19.0043
11	11	1	26.2361	-0.765163	-18.8383
12	12	1	26.0463	0.0162035	-18.2644
13	13	1	26.0414	0.839479	-18.7117
14	14	1	25.2215	0.346001	-18.9783
15	15	1	25.5274	1.15897	-19.3797
16	16	1	25.3602	2.05608	-19.0247
17	17	1	25.2688	2.6347	-18.2153
18	18	1	25.8602	3.41954	-18.0717
19	19	1	26.5161	3.92946	-17.5455
20	20	1	26.2317	4.34068	-18.3681
21	21	1	26.7833	3.60627	-18.4519
22	22	1	26.5501	2.67675	-18.1791
23	23	1	26.4759	2.57468	-19.1383
24	24	1	27.1494	2.07796	-19.6186
25	25	1	27.1626	1.30503	-19.0801
26	26	1	26.4339	1.41978	-19.6398
27	27	1	26.8419	0.663873	-20.1033
28	28	1	26.5089	-0.230075	-20.3691
29	29	1	25.7147	-0.734391	-20.6593
30	30	1	25.3893	0.15169	-20.6512
31	31	1	24.6981	0.0617262	-19.9979
32	32	1	23.8854	-0.0615741	-19.4765
33	33	1	23.5718	0.183017	-20.3567
34	34	1	23.621	-0.4249	-21.0577
35	35	1	24.0313	-0.130829	-21.8758
36	36	1	23.2555	-0.205257	-22.4551
37	37	1	23.4157	-1.09586	-22.5781
38	38	1	23.1659	-1.37421	-23.5246
39	39	1	23.0796	-2.35492	-23.5734
40	40	1	23.7819	-1.94691	-23.1163
41	41	1	24.6814	-2.10561	-23.1341
42	42	1	24.7177	-1.77152	-24.0154
43	43	1	24.7571	-2.73453	-23.8755
44	44	1	25.08	-2.89102	-24.8142
45	45	1	25.1875	-3.01425	-25.8022
46	46	1	24.3895	-2.57868	-25.9005
47	47	1	23.516	-2.37771	-25.6977
48	48	1	23.4621	-1.44611	-25.4456
49	49	1	23.0352	-1.75426	-24.544
50	50	1	23.5319	-2.55841	-24.3235
51	51	1	23.6311	-3.31537	-23.6687
52	52	1	24.4383	-3.8265	-23.4257
53	53	1	24.5026	-3.84424	-22.4813
54	54	1	24.1396	-4.09526	-21.6565
55	55	1	23.7687	-4.52159	-22.3804
56	56	1	24.4134	-5.18189	-22.1052
57	57	1	24.8001	-5.69193	-22.7851
58	58	1	25.189	-6.06089	-23.6026
59	59	1	24.5991	-6.17609	-24.5363
60	60	1	24.3449	-6.82713	-25.1354
61	61	1	24.2691	-7.74952	-24.9813
62	62	1	25.1064	-8.06664	-24.6425
63	63	1	25.3598	-7.17044	-24.7499
64	64	1	26.0107	-6.57141	-24.3942
65	65	1	25.852	-5.56022	-24.3762
66	66	1	25.3553	-5.18175	-25.1239
67	67	1	25.3913	-4.60501	-24.3651
68	68	1	26.2997	-4.52729	-24.6596
69	69	1	26.3484	-4.35855	-25.5996
70	70	1	25.9321	-5.151	-26.0256
71	71	1	26.2691	-5.74709	-26.73
72	72	1	26.8225	-5.35828	-27.4007
73	73	1	27.2052	-4.95374	-28.2083
74	74	1	27.7201	-5.17521	-28.9787
75	75	1	28.363	-5.46808	-29.6344
76	76	1	27.9292	-6.14982	-30.236
77	77	1	28.8715	-6.3767	-30.1543
78	78	1	28.9524	-5.50292	-30.5826
79	79	1	29.4437	-4.94956	-29.8924
80	80	1	29.2587	-4.84085	-28.952
81	81	1	28.9754	-4.17193	-29.5556
82	82	1	29.4843	-3.42452	-30.0648
83	83	1	29.3164	-2.70509	-29.3434
84	84	1	29.1102	-2.2769	-30.2094
85	85	1	28.1627	-2.18168	-30.1491
86	86	1	27.5522	-2.33543	-29.4442
87	87	1	27.8927	-1.8371	-28.7454
88	88	1	27.0161	-1.88566	-28.2408
89	89	1	26.2958	-1.21878	-28.1215
90	90	1	25.3683	-1.32125	-27.8176
91	91	1	25.5232	-0.394393	-27.5396
92	92	1	25.6681	0.54452	-27.8188
93	93	1	25.6746	1.22022	-28.7116
94	94	1	25.5538	1.85232	-28.0379
95	95	1	24.7091	1.49533	-28.0768
96	96	1	24.6292	0.882856	-28.842
97	97	1	24.8225	-0.135388	-28.806
98	98	1	24.1713	-0.600818	-28.2448
99	99	1	23.9642	-1.32876	-28.9079
100	100	1	24.9035	-1.42024	-28.8642
101	101	1	25.6338	-0.885131	-29.4425
102	102	1	26.5176	-0.865155	-29.1059
103	103	1	26.7936	0.0438504	-28.8327
104	104	1	26.8389	0.877779	-28.3751
105	105	1	27.6504	1.36936	-28.3405
106	106	1	28.5574	1.57565	-28.2733
107	107	1	28.8087	0.662317	-27.9627
108	108	1	29.5055	-0.0365363	-27.8242
109	109	1	30.4504	0.119188	-27.7731
110	110	1	30.7496	0.816248	-28.3249
111	111	1	31.5322	0.450161	-28.7484
112	112	1	32.4339	0.262848	-28.4597
113	113	1	32.9345	0.242673	-27.6604
114	114	1	32.9357	1.0959	-28.1183
115	115	1	33.0602	2.03118	-27.8817
116	116	1	33.8273	2.10843	-27.2629
117	117	1	34.7995	1.82276	-27.0808
118	118	1	35.6348	1.33949	-27.3516
119	119	1	34.763	1.03216	-27.6646
120	120	1	33.8699	0.691962	-27.7153
121	121	1	34.1801	1.07487	-26.8991
122	122	1	34.5867	1.04113	-26.1163
123	123	1	34.1731	1.53265	-25.3813
124	124	1	34.4739	0.854392	-24.7631
125	125	1	35.359	1.27367	-25.0105
126	126	1	35.7319	1.6801	-25.7882
127	127	1	36.3833	1.53501	-25.0395
128	128	1	36.4604	2.28329	-24.5042
129	129	1	37.1145	2.96477	-24.3012
130	130	1	37.3644	3.35112	-25.1621
131	131	1	38.2978	3.65785	-25.4742
132	132	1	37.9212	4.35162	-26.0201
133	133	1	37.8611	5.08834	-26.6379
134	134	1	37.8178	5.85356	-27.193
135	135	1	38.6458	6.28614	-27.0028
136	136	1	39.4179	6.63031	-26.5599
137	137	1	39.6222	6.23002	-25.7392
138	138	1	39.8979	7.14468	-25.66
139	139	1	39.5054	7.30939	-24.8163
140	140	1	40.47	7.43423	-24.9017
141	141	1	41.1422	6.79774	-24.779
142	142	1	40.9445	6.46811	-25.6381
143	143	1	41.394	5.58221	-25.5455
144	144	1	40.9722	5.28045	-26.3086
145	145	1	41.2248	4.50326	-26.7781
146	146	1	40.9873	5.03713	-27.6255
147	147	1	40.0997	4.73346	-27.462
148	148	1	40.4439	5.65915	-27.3633
149	149	1	41.2812	6.0794	-27.3419
150	150	1	42.0732	6.63514	-27.0687
151	151	1	41.6509	7.46506	-27.1094
152	152	1	41.7087	7.46876	-28.0542
153	153	1	42.2972	8.1297	-28.5105
154	154	1	42.7344	8.9528	-28.1805
155	155	1	42.1946	9.63156	-27.6241
156	156	1	41.8367	9.31558	-28.4832
157	157	1	41.6417	10.1044	-29.009
158	158	1	41.9972	11.068	-28.915
159	159	1	42.2014	12.0621	-28.8224
160	160	1	41.7278	12.4508	-29.591
161	161	1	41.2815	11.5802	-29.7521
162	162	1	40.82	10.8644	-29.3592
163	163	1	40.8432	10.435	-30.2716
164	164	1	41.5444	9.8124	-30.4121
165	165	1	41.286	9.14095	-31.0634
166	166	1	41.8529	8.87697	-30.3369
167	167	1	41.4141	9.19631	-29.4797
168	168	1	41.2642	8.20823	-29.4071
169	169	1	41.508	7.78683	-30.2173
170	170	1	41.0978	7.6714	-31.1943
171	171	1	41.9007	8.21858	-31.2252
172	172	1	42.1037	7.21374	-30.9503
173	173	1	41.9048	6.37338	-30.5926
174	174	1	41.8732	5.38325	-30.3681
175	175	1	41.3491	5.51645	-29.5363
176	176	1	42.272	5.13292	-29.4352
177	177	1	41.9639	4.32293	-29.1007
178	178	1	41.4027	3.85198	-28.5714
179	179	1	41.6603	2.96862	-28.6699
180	180	1	41.1126	2.18117	-28.9998
181	181	1	41.2021	1.68563	-28.1421
182	182	1	40.7581	1.88254	-27.3111
183	183	1	39.8273	1.91119	-27.6768
184	184	1	38.9795	2.31171	-27.4125
185	185	1	39.3811	3.13807	-26.9795
186	186	1	39.8453	3.62366	-27.6649
187	187	1	40.5692	3.18791	-28.2164
188	188	1	40.3235	3.87044	-28.8086
189	189	1	40.3565	3.02794	-29.2248
190	190	1	39.6625	2.42317	-29.5367
191	191	1	38.9449	2.38764	-28.8751
192	192	1	39.5274	2.91603	-28.3385
193	193	1	38.7997	3.35611	-28.8107
194	194	1	38.9456	4.03709	-28.1953
195	195	1	38.7759	4.58345	-29.0207
196	196	1	39.4689	3.91701	-29.2022
197	197	1	39.9693	3.70292	-30.0114
198	198	1	39.36	3.38384	-30.7378
199	199	1	38.6564	3.82343	-31.1426
200	200	1	39.2299	3.21035	-31.6129
201	201	1	27.4071	0	-15.7143
202	202	1	26.5146	-0.430399	-15.8497
203	203	1	25.656	-0.839884	-15.7855
204	204	1	24.7265	-0.527185	-16.2332
205	205	1	24.1313	-0.665721	-16.9224
206	206	1	23.6153	-1.34312	-17.4156
207	207	1	22.6736	-1.06173	-17.3327
208	208	1	22.154	-0.949378	-16.477
209	209	1	22.5023	-0.302039	-15.842
210	210	1	21.9869	-0.667069	-15.0714
211	211	1	21.3573	-0.521032	-15.7984
212	212	1	21.6922	0.338144	-15.9222
213	213	1	21.9638	0.0900405	-16.8139
214	214	1	21.1205	-0.367687	-16.9678
215	215	1	20.835	-0.836161	-17.7531
216	216	1	21.2629	-1.52717	-17.2762
217	217	1	22.0409	-1.93359	-17.7676
218	218	1	21.6723	-1.01983	-18.0851
219	219	1	21.3067	-1.44494	-18.8384
220	220	1	21.7428	-1.99315	-19.4204
221	221	1	21.8898	-2.88665	-19.0566
222	222	1	21.1877	-3.42849	-18.6954
223	223	1	20.4249	-4.04463	-18.4867
224	224	1	20.3688	-3.2062	-18.024
225	225	1	20.4915	-2.35063	-18.4615
226	226	1	20.2649	-1.90951	-19.2694
227	227	1	20.7488	-1.4933	-20.0516
228	228	1	20.0121	-0.916555	-19.8845
229	229	1	19.8681	0.0704128	-19.9665
230	230	1	20.6004	0.694399	-19.9101
231	231	1	21.1936	0.980887	-19.1757
232	232	1	21.0541	1.80229	-19.6164
233	233	1	20.5304	2.52808	-19.9034
234	234	1	19.6812	2.86846	-19.6518
235	235	1	18.7791	3.1551	-19.5778
236	236	1	19.2121	3.27356	-18.7347
237	237	1	19.1163	2.43864	-18.2452
238	238	1	19.0215	1.49718	-18.2065
239	239	1	18.5904	1.97337	-18.9124
240	240	1	17.7342	2.38135	-19.037
241	241	1	17.7679	3.33397	-19.2745
242	242	1	17.8239	3.95648	-20.0147
243	243	1	17.664	3.39303	-20.8029
244	244	1	18.2308	2.72907	-21.1388
245	245	1	18.0821	2.77731	-20.1661
246	246	1	18.0046	1.85327	-20.012
247	247	1	17.0958	2.08162	-19.8561
248	248	1	16.7571	2.79898	-20.3707
249	249	1	16.6408	2.88802	-19.4415
250	250	1	16.7264	2.09082	-19.0008
251	251	1	16.0001	1.79904	-18.46
252	252	1	15.747	1.51704	-19.3308
253	253	1	14.852	1.52854	-19.1569
254	254	1	14.9169	2.16899	-18.4648
255	255	1	15.2007	2.56353	-19.2698
256	256	1	15.3656	3.29411	-18.6176
257	257	1	14.6072	3.09664	-18.1365
258	258	1	14.4136	3.90656	-17.6629
259	259	1	15.2838	4.32696	-17.9413
260	260	1	15.2485	3.68506	-17.2869
261	261	1	15.2463	3.41503	-16.3808
262	262	1	14.5014	3.05431	-15.8255
263	263	1	15.1272	2.46779	-15.2614
264	264	1	14.3905	2.90976	-14.8027
265	265	1	14.5099	2.90537	-13.8023
266	266	1	15.1006	2.2954	-14.2551
267	267	1	15.1003	1.71566	-13.5328
268	268	1	15.7579	0.985615	-13.607
269	269	1	16.6506	1.37422	-13.8318
270	270	1	16.3035	1.21246	-14.7047
271	271	1	16.7401	1.52158	-15.5056
272	272	1	16.8362	1.20164	-16.3721
273	273	1	17.0371	0.367099	-16.6999
274	274	1	17.6093	0.984106	-17.1295
275	275	1	17.3342	1.16891	-18.032
276	276	1	17.5162	0.198471	-18.1462
277	277	1	16.9537	-0.362265	-17.5961
278	278	1	17.6711	-0.353898	-16.9368
279	279	1	18.358	-0.152959	-17.6531
280	280	1	18.1184	-0.527976	-18.477
281	281	1	18.5032	-0.323827	-19.3525
282	282	1	18.1943	-0.262363	-20.2688
283	283	1	17.8773	-1.11532	-20.1271
284	284	1	17.888	-1.75379	-20.8094
285	285	1	16.9598	-1.48619	-21.1433
286	286	1	16.4742	-2.33703	-21.2534
287	287	1	16.2245	-3.23746	-20.9267
288	288	1	15.2744	-3.02626	-21.0006
289	289	1	14.6806	-3.82256	-21.0004
290	290	1	15.1965	-4.21183	-20.2641
291	291	1	16.0457	-4.12944	-20.8151
292	292	1	15.9176	-4.91715	-21.4218
293	293	1	15.7911	-5.11455	-20.4175
294	294	1	16.7754	-5.2702	-20.1034
295	295	1	17.5812	-5.75289	-20.1237
296	296	1	18.2541	-6.45839	-20.0397
297	297	1	18.5941	-6.9291	-20.8158
298	298	1	18.2469	-6.07058	-21.1675
299	299	1	18.4221	-5.32952	-21.6832
300	300	1	18.2211	-4.46338	-21.2215
301	301	1	18.9142	-3.72056	-21.1303
302	302	1	18.8327	-2.90315	-20.5974
303	303	1	19.411	-2.14981	-20.5812
304	304	1	20.0858	-1.6493	-20.9048
305	305	1	19.6631	-0.761593	-20.9384
306	306	1	18.7195	-0.703605	-21.1335
307	307	1	18.5731	-1.03129	-22.038
308	308	1	18.1699	-1.08617	-22.9123
309	309	1	19.0047	-0.864674	-23.328
310	310	1	19.304	-1.73959	-23.6357
311	311	1	18.57	-1.40966	-24.2338
312	312	1	18.1671	-1.78615	-23.4414
313	313	1	17.7354	-2.01763	-24.2701
314	314	1	18.5415	-2.13517	-24.7456
315	315	1	17.9263	-1.63437	-25.3185
316	316	1	18.0092	-1.7014	-26.2766
317	317	1	17.5395	-2.3194	-26.8686
318	318	1	17.6091	-1.3919	-27.1657
319	319	1	18.2324	-0.62402	-27.4952
320	320	1	17.9923	0.315332	-27.5111
321	321	1	17.3983	0.531246	-28.241
322	322	1	17.0361	0.134569	-27.478
323	323	1	17.3363	1.06603	-27.2792
324	324	1	17.6346	1.68992	-26.6316
325	325	1	17.8807	1.33656	-25.7051
326	326	1	16.941	1.12481	-25.8975
327	327	1	16.362	1.22551	-25.168
328	328	1	15.5919	1.80042	-25.4547
329	329	1	15.153	2.38133	-24.7868
330	330	1	16.0269	2.58655	-25.1555
331	331	1	15.2312	2.76259	-25.7398
332	332	1	14.276	2.58655	-25.4599
333	333	1	13.4739	2.24855	-25.0842
334	334	1	12.962	2.32841	-24.2035
335	335	1	12.9074	1.36225	-23.9637
336	336	1	12.1647	0.733457	-23.8733
337	337	1	12.168	-0.14283	-24.0791
338	338	1	11.3848	0.147957	-23.6127
339	339	1	10.4734	-0.0665587	-23.7007
340	340	1	10.0403	-0.479828	-22.9931
341	341	1	10.4505	-1.21755	-23.4447
342	342	1	11.092	-1.26399	-22.7789
343	343	1	11.8138	-1.85709	-22.5155
344	344	1	12.0367	-2.55868	-23.0888
345	345	1	12.8919	-2.69663	-22.7911
346	346	1	13.6075	-3.36582	-22.7151
347	347	1	13.6004	-3.91132	-23.5144
348	348	1	14.2176	-3.24999	-23.866
349	349	1	13.309	-3.00153	-23.8028
350	350	1	13.1665	-2.34919	-24.4693
351	351	1	13.715	-2.43648	-25.2089
352	352	1	14.4511	-2.49291	-25.791
353	353	1	15.183	-3.04672	-25.9058
354	354	1	15.9045	-3.19581	-26.5013
355	355	1	16.2507	-2.4357	-26.1994
356	356	1	15.4844	-2.04219	-25.7473
357	357	1	15.4144	-1.45435	-24.9583
358	358	1	15.3739	-0.834763	-24.1968
359	359	1	14.498	-1.17657	-24.2846
360	360	1	13.8679	-0.570207	-23.8419
361	361	1	13.5926	0.3408	-23.7011
362	362	1	13.2685	-0.0576677	-24.4759
363	363	1	12.9707	-0.750386	-23.8403
364	364	1	13.0135	-0.540507	-22.9145
365	365	1	12.2402	-0.140518	-22.5107
366	366	1	13.0613	0.340757	-22.4799
367	367	1	13.3067	1.23212	-22.4724
368	368	1	13.2787	1.56339	-21.572
369	369	1	12.7308	1.89662	-20.7271
370	370	1	12.2557	1.08357	-20.6269
371	371	1	11.5415	0.397357	-20.4424
372	372	1	10.583	0.190491	-20.4152
373	373	1	10.3848	1.12593	-20.1333
374	374	1	10.6707	1.31879	-19.2236
375	375	1	10.3278	0.780542	-18.4524
376	376	1	10.2987	1.03499	-17.5298
377	377	1	11.127	1.52235	-17.4964
378	378	1	11.2752	2.36712	-17.0302
379	379	1	10.9118	2.8544	-17.8205
380	380	1	11.2478	3.47696	-18.5768
381	381	1	11.8738	3.93079	-19.1194
382	382	1	12.7865	3.81522	-19.0064
383	383	1	13.291	4.52987	-19.4124
384	384	1	13.3384	4.07041	-20.3677
385	385	1	13.5882	3.42154	-21.0261
386	386	1	13.5841	3.00773	-21.8902
387	387	1	13.5959	2.3261	-21.248
388	388	1	13.7459	1.88011	-20.4472
389	389	1	13.6814	1.1242	-19.8716
390	390	1	12.8778	0.706274	-19.5263
391	391	1	12.2524	-0.0155971	-19.751
392	392	1	12.4498	0.205957	-18.8318
393	393	1	11.8302	-0.297799	-18.2383
394	394	1	11.5394	0.531767	-18.4986
395	395	1	11.9495	1.19087	-17.8964
396	396	1	11.9362	1.83763	-18.693
397	397	1	11.2096	2.41538	-18.9062
398	398	1	11.411	1.85281	-19.6726
399	399	1	11.1399	2.76302	-19.8799
400	400	1	10.3259	3.31854	-19.9278
401	401	1	26.6701	0	-12.8571
402	402	1	25.7754	0.50617	-12.7761
403	403	1	25.3175	0.00258531	-13.5155
404	404	1	25.2849	0.982453	-13.5513
405	405	1	24.4928	1.15955	-12.9797
406	406	1	23.6322	1.53564	-12.8581
407	407	1	23.917	0.610989	-12.7635
408	408	1	23.3565	0.51197	-13.575
409	409	1	22.5944	0.589797	-14.1269
410	410	1	22.6633	1.2454	-13.3512
411	411	1	22.3238	1.41383	-12.4448
412	412	1	22.9288	0.970955	-11.8733
413	413	1	22.6861	0.974042	-10.9666
414	414	1	22.8406	0.064312	-11.2474
415	415	1	23.1212	-0.854598	-10.9506
416	416	1	22.5965	-0.945923	-11.8008
417	417	1	21.8069	-0.976668	-12.2553
418	418	1	21.8751	-1.63704	-12.9164
419	419	1	22.3576	-2.4725	-12.7963
420	420	1	22.2202	-2.68602	-13.7015
421	421	1	22.6086	-2.47705	-14.5993
422	422	1	22.2251	-2.9857	-15.4133
423	423	1	22.3584	-3.85674	-15.1471
424	424	1	21.7959	-4.67583	-15.1191
425	425	1	20.9438	-4.37355	-15.4577
426	426	1	20.6953	-3.90335	-14.6934
427	427	1	20.1542	-3.15044	-14.365
428	428	1	20.3056	-3.79846	-13.6473
429	429	1	21.1464	-4.05277	-13.3215
430	430	1	20.5931	-4.86297	-13.077
431	431	1	21.1272	-5.29153	-12.3992
432	432	1	21.1483	-5.94938	-11.6865
433	433	1	20.5852	-5.49348	-11.0857
434	434	1	20.4716	-5.49768	-10.1704
435	435	1	20.611	-5.86884	-9.25636
436	436	1	19.9103	-6.39528	-9.11689
437	437	1	19.213	-5.73364	-8.76337
438	438	1	18.9018	-6.04227	-9.61926
439	439	1	19.2277	-5.61657	-10.3921
440	440	1	18.6367	-6.26249	-10.7738
441	441	1	18.0394	-5.62911	-10.3875
442	442	1	18.3162	-5.1345	-11.1474
443	443	1	17.9834	-4.44778	-11.8843
444	444	1	18.3544	-4.69939	-12.7508
445	445	1	17.6571	-4.08866	-12.9577
446	446	1	17.2258	-3.33408	-12.5744
447	447	1	16.8404	-2.96496	-13.3893
448	448	1	17.6439	-3.04951	-13.8507
449	449	1	17.2397	-2.16792	-13.9728
450	450	1	17.4133	-1.46615	-14.6233
451	451	1	16.8827	-0.649297	-14.3797
452	452	1	17.6836	-0.311629	-14.6404
453	453	1	17.1002	-0.49653	-15.4103
454	454	1	16.8506	-1.38307	-15.4934
455	455	1	17.3931	-0.966192	-16.212
456	456	1	18.08	-1.03545	-15.6444
457	457	1	18.5491	-1.85176	-15.3499
458	458	1	17.6141	-2.26911	-15.3768
459	459	1	16.9247	-2.76997	-14.8005
460	460	1	16.2239	-2.6622	-14.0929
461	461	1	16.3095	-1.92243	-13.5109
462	462	1	16.0424	-1.54686	-14.3142
463	463	1	15.5165	-1.98161	-15.0406
464	464	1	15.0287	-2.41241	-14.3542
465	465	1	14.502	-2.45502	-13.5766
466	466	1	14.1177	-2.2953	-14.3886
467	467	1	13.193	-2.34882	-14.3981
468	468	1	12.8472	-1.48059	-14.6376
469	469	1	12.2524	-2.26194	-14.8587
470	470	1	12.3016	-1.68858	-15.6944
471	471	1	12.5223	-2.64515	-15.8514
472	472	1	12.5198	-3.59787	-16.1471
473	473	1	12.6856	-3.71701	-15.1379
474	474	1	12.2131	-4.60726	-15.1731
475	475	1	11.3115	-4.66159	-14.8627
476	476	1	11.4872	-5.16816	-15.6443
477	477	1	11.0693	-5.87834	-16.0554
478	478	1	10.2647	-5.41553	-15.8172
479	479	1	9.50159	-5.55723	-16.309
480	480	1	8.84492	-5.28336	-16.9951
481	481	1	8.83308	-4.33435	-16.8978
482	482	1	9.49829	-4.14843	-17.6584
483	483	1	10.4458	-4.2562	-17.9651
484	484	1	11.0109	-3.54256	-18.1133
485	485	1	10.0821	-3.27624	-17.8839
486	486	1	10.4013	-3.52219	-17.0258
487	487	1	10.7112	-2.59418	-16.8482
488	488	1	10.6024	-1.92525	-17.5959
489	489	1	11.3513	-2.45797	-18.0503
490	490	1	12.2799	-2.35138	-17.8792
491	491	1	13.0592	-2.85192	-17.7291
492	492	1	13.6109	-3.24579	-18.503
493	493	1	14.4349	-3.21168	-19.0178
494	494	1	14.6206	-3.62984	-18.1527
495	495	1	14.9682	-4.2505	-18.7636
496	496	1	15.3259	-5.10266	-19.0192
497	497	1	15.167	-5.93867	-19.6457
498	498	1	14.5793	-6.41272	-19.1207
499	499	1	13.7755	-6.06582	-18.8576
500	500	1	13.9095	-5.11457	-19.0111
501	501	1	14.0968	-5.5051	-18.1674
502	502	1	13.2505	-5.8597	-17.8915
503	503	1	13.7061	-5.25515	-17.2465
504	504	1	13.3677	-5.52714	-16.3974
505	505	1	12.4993	-5.01268	-16.2305
506	506	1	13.1151	-4.45918	-15.6942
507	507	1	13.6961	-4.42311	-16.4145
508	508	1	14.5272	-4.83464	-16.3255
509	509	1	14.878	-4.35931	-17.0575
510	510	1	14.9763	-3.4113	-16.9829
511	511	1	14.6303	-2.69091	-17.4541
512	512	1	14.4879	-2.35267	-18.3676
513	513	1	14.6983	-1.59306	-18.9823
514	514	1	15.3738	-1.79141	-19.58
515	515	1	16.0452	-1.09844	-19.9289
516	516	1	15.3229	-1.24002	-20.5712
517	517	1	14.7177	-0.765646	-19.9371
518	518	1	13.8228	-0.640518	-19.5825
519	519	1	14.0522	0.146616	-20.0903
520	520	1	13.4143	0.151402	-20.8243
521	521	1	13.4222	-0.783984	-20.5646
522	522	1	13.545	-0.844748	-21.5166
523	523	1	13.6144	-1.39201	-22.2448
524	524	1	13.6761	-2.36989	-21.9693
525	525	1	12.7484	-2.25382	-21.562
526	526	1	13.0702	-3.06872	-21.0831
527	527	1	12.1139	-3.02161	-21.2525
528	528	1	12.428	-2.57601	-20.429
529	529	1	11.537	-2.13166	-20.4908
530	530	1	11.6626	-1.5603	-19.7111
531	531	1	11.2182	-1.66155	-18.8812
532	532	1	11.0451	-1.10925	-18.0843
533	533	1	11.4654	-0.979197	-17.1942
534	534	1	11.3794	-1.23065	-16.248
535	535	1	11.6443	-1.0042	-15.3726
536	536	1	11.3771	-0.142167	-15.3185
537	537	1	11.9554	0.612626	-15.0988
538	538	1	12.3922	0.146534	-14.403
539	539	1	11.5892	0.714036	-14.0333
540	540	1	11.8829	1.54819	-13.6856
541	541	1	10.9975	1.56476	-14.0963
542	542	1	10.206	1.36586	-14.5564
543	543	1	10.1852	2.32298	-14.6776
544	544	1	9.30619	2.06363	-14.918
545	545	1	9.17057	1.39562	-15.6059
546	546	1	8.62569	1.21282	-14.8374
547	547	1	8.11101	1.24431	-15.6301
548	548	1	7.28415	0.928698	-15.1671
549	549	1	7.21985	1.76045	-15.7123
550	550	1	8.02019	2.17338	-16.2133
551	551	1	7.676	1.32045	-16.4455
552	552	1	7.4664	0.65666	-17.0691
553	553	1	7.44764	0.362213	-18.0546
554	554	1	6.96178	-0.37484	-18.3542
555	555	1	6.48944	0.219663	-17.7455
556	556	1	6.41591	0.306161	-16.8734
557	557	1	5.62845	0.880699	-17.0129
558	558	1	5.30479	0.10643	-16.5167
559	559	1	5.70991	0.465023	-15.6931
560	560	1	5.26278	1.31846	-15.6193
561	561	1	5.82414	1.68859	-14.9296
562	562	1	6.16708	1.10368	-14.2611
563	563	1	6.44267	0.210396	-14.2209
564	564	1	6.70747	0.169544	-13.2748
565	565	1	6.07974	-0.479673	-12.7436
566	566	1	5.50913	0.225289	-13.1657
567	567	1	6.03449	-0.486653	-13.6822
568	568	1	6.19583	-1.47605	-13.5351
569	569	1	5.6339	-1.95793	-14.1714
570	570	1	4.6614	-1.68002	-14.176
571	571	1	4.47288	-2.53034	-13.6893
572	572	1	3.50963	-2.27444	-13.7906
573	573	1	3.00314	-2.53095	-13.0764
574	574	1	3.48534	-2.94931	-12.3302
575	575	1	2.97937	-2.82684	-11.5133
576	576	1	3.05763	-1.83284	-11.5336
577	577	1	2.33406	-1.25151	-11.3711
578	578	1	1.53266	-0.896175	-10.9506
579	579	1	1.3308	-0.401233	-11.7674
580	580	1	0.889112	-0.111536	-12.5688
581	581	1	1.7274	-0.587825	-12.7602
582	582	1	2.58647	-0.102845	-12.8951
583	583	1	3.29462	-0.334534	-13.4555
584	584	1	4.07081	-0.945682	-13.4772
585	585	1	5.00912	-0.615643	-13.4365
586	586	1	5.28275	-1.37356	-12.9748
587	587	1	4.43182	-1.1523	-12.4877
588	588	1	5.17727	-1.61722	-12.0109
589	589	1	6.06356	-1.77581	-12.3299
590	590	1	5.99897	-2.5277	-11.7649
591	591	1	5.97007	-1.72175	-11.0774
592	592	1	5.907	-0.724468	-11.1155
593	593	1	6.40331	-0.202568	-11.7629
594	594	1	5.80726	0.35793	-11.2934
595	595	1	5.59844	1.03694	-10.6629
596	596	1	5.36486	0.48221	-9.91485
597	597	1	4.72306	1.0231	-9.3498
598	598	1	3.93943	1.59409	-9.28308
599	599	1	2.9991	1.63413	-9.52433
600	600	1	3.31592	2.47621	-9.6607
601	601	1	26.1699	0	-10
602	602	1	25.3908	0.123957	-9.45858
603	603	1	24.7537	0.740818	-9.68189
604	604	1	24.2398	1.13876	-10.4056
605	605	1	23.812	0.202439	-10.4812
606	606	1	23.1942	-0.422423	-10.1149
607	607	1	23.6893	-0.706421	-9.3822
608	608	1	22.9615	-0.705009	-8.67109
609	609	1	22.8622	-0.412202	-7.78616
610	610	1	22.4633	0.0855706	-8.47762
611	611	1	21.698	-0.057343	-7.87007
612	612	1	21.0799	0.308937	-8.53619
613	613	1	20.5496	-0.146193	-9.19507
614	614	1	21.196	0.438539	-9.60552
615	615	1	22.0955	0.155801	-9.69136
616	616	1	21.9403	0.70123	-8.85583
617	617	1	22.562	1.2781	-9.56333
618	618	1	22.0718	1.86773	-10.102
619	619	1	21.4771	1.58602	-9.3501
620	620	1	20.8136	1.34944	-10.0344
621	621	1	21.427	1.68025	-10.7726
622	622	1	21.3422	0.804292	-11.1551
623	623	1	20.4156	0.684267	-10.8665
624	624	1	19.5234	0.705563	-10.5439
625	625	1	20.0375	0.738639	-9.71128
626	626	1	19.755	0.797085	-8.78794
627	627	1	19.149	0.127329	-9.4261
628	628	1	18.5585	0.54865	-8.7649
629	629	1	17.6761	0.913168	-8.93978
630	630	1	16.8902	0.387847	-9.12616
631	631	1	16.7411	-0.481311	-9.46667
632	632	1	16.7083	0.0134474	-10.2595
633	633	1	15.8119	-0.159925	-10.0227
634	634	1	15.2797	-0.903739	-9.8703
635	635	1	15.716	-1.8027	-9.75528
636	636	1	14.7592	-1.8148	-9.77438
637	637	1	14.7181	-1.30479	-8.93533
638	638	1	15.6648	-1.18645	-8.63225
639	639	1	16.0868	-0.320825	-8.48905
640	640	1	16.9315	-0.102721	-8.11664
641	641	1	17.6902	-0.532069	-7.66987
642	642	1	17.7316	-0.116145	-8.53197
643	643	1	18.1227	-0.661049	-9.24632
644	644	1	17.9562	-0.122002	-10.0231
645	645	1	17.8842	0.80064	-10.1362
646	646	1	18.4057	0.489364	-10.8819
647	647	1	17.7261	0.660534	-11.5587
648	648	1	17.6959	-0.301178	-11.3348
649	649	1	16.9427	-0.676905	-10.8161
650	650	1	16.4706	0.0300003	-11.2482
651	651	1	16.7873	-0.80609	-11.7454
652	652	1	17.5631	-1.33001	-11.4683
653	653	1	17.3855	-2.06129	-12.0761
654	654	1	17.0103	-1.5092	-12.716
655	655	1	16.3347	-0.953886	-13.1129
656	656	1	15.9371	-0.344184	-13.7125
657	657	1	16.5176	0.432012	-13.8349
658	658	1	16.9596	0.0171082	-13.1144
659	659	1	16.3816	0.776986	-12.8284
660	660	1	15.9812	1.7278	-12.7681
661	661	1	15.7711	1.91798	-11.8135
662	662	1	16.2248	1.30149	-11.2146
663	663	1	16.673	1.60066	-11.9806
664	664	1	16.6816	2.52088	-12.1212
665	665	1	17.2374	2.44441	-11.2919
666	666	1	16.3526	2.81762	-11.2253
667	667	1	16.4752	2.22308	-10.4332
668	668	1	15.8419	2.61723	-9.76959
669	669	1	16.338	3.16833	-10.3454
670	670	1	17.2202	3.14429	-9.79057
671	671	1	16.8047	4.01181	-10.1795
672	672	1	16.3726	3.68414	-9.4282
673	673	1	15.8696	4.47698	-9.50108
674	674	1	16.1762	5.24208	-10.0257
675	675	1	15.7529	4.436	-10.4383
676	676	1	15.4007	3.58969	-10.4577
677	677	1	15.3481	4.09531	-11.2786
678	678	1	15.0807	4.54376	-12.098
679	679	1	14.3371	4.54507	-11.4981
680	680	1	14.0764	4.8503	-12.3854
681	681	1	13.7252	4.01946	-12.396
682	682	1	13.8325	3.38194	-11.6136
683	683	1	14.185	2.47917	-11.824
684	684	1	14.0323	2.2453	-12.7974
685	685	1	14.6801	2.90592	-12.4485
686	686	1	14.2193	3.41513	-13.1593
687	687	1	13.7311	3.57553	-13.9452
688	688	1	13.3989	3.14319	-14.7823
689	689	1	13.6516	2.59782	-14.0343
690	690	1	13.1266	2.11134	-13.4055
691	691	1	12.859	2.28643	-12.4523
692	692	1	12.2487	2.70614	-13.027
693	693	1	11.8369	3.11577	-12.2228
694	694	1	11.3991	2.26294	-12.1416
695	695	1	11.4877	2.50316	-11.2062
696	696	1	11.9595	1.71589	-11.4604
697	697	1	11.0259	1.57627	-11.3429
698	698	1	10.2408	1.48774	-10.8149
699	699	1	10.6874	0.727225	-10.559
700	700	1	10.8182	-0.153638	-10.2769
701	701	1	11.592	-0.397509	-9.80484
702	702	1	11.3024	-1.27931	-9.64329
703	703	1	10.5448	-0.810691	-9.40618
704	704	1	10.4706	-1.51368	-10.0673
705	705	1	11.3715	-1.92951	-10.3
706	706	1	12.2678	-1.99722	-9.86157
707	707	1	11.829	-2.68453	-10.3962
708	708	1	12.5276	-2.72454	-11.1033
709	709	1	12.2463	-2.93647	-12.0675
710	710	1	11.9447	-3.88024	-12.2231
711	711	1	11.593	-3.42598	-11.3706
712	712	1	10.8529	-3.2314	-11.9818
713	713	1	10.5245	-2.72059	-12.7584
714	714	1	11.3031	-2.31358	-12.4375
715	715	1	11.0645	-1.54626	-11.9421
716	716	1	10.6641	-1.67489	-12.853
717	717	1	9.71032	-1.37344	-13.2249
718	718	1	10.2062	-1.06588	-14.0378
719	719	1	10.9683	-1.00768	-14.7024
720	720	1	11.854	-0.82454	-14.3829
721	721	1	11.4951	-1.55493	-13.9338
722	722	1	10.6998	-2.07316	-14.1554
723	723	1	10.802	-2.68706	-14.8543
724	724	1	11.2783	-2.12099	-15.4726
725	725	1	11.6773	-3.06064	-15.4111
726	726	1	11.3504	-4.00591	-15.5508
727	727	1	10.7629	-3.56426	-16.2092
728	728	1	10.1406	-3.80733	-15.5329
729	729	1	10.596	-3.72622	-14.6465
730	730	1	9.84157	-3.94761	-14.1267
731	731	1	10.019	-2.99479	-14.096
732	732	1	9.7487	-2.51885	-13.3637
733	733	1	9.97184	-3.42698	-13.2041
734	734	1	9.82722	-3.39233	-12.2742
735	735	1	9.48312	-2.50916	-12.0221
736	736	1	10.2497	-2.34226	-11.3809
737	737	1	9.93267	-1.48147	-11.8306
738	738	1	10.3806	-0.587396	-11.6188
739	739	1	10.8612	0.217169	-11.3952
740	740	1	10.0789	0.868989	-11.501
741	741	1	9.51442	0.320171	-12.0807
742	742	1	10.3984	0.231386	-12.4856
743	743	1	10.4273	1.1193	-12.8388
744	744	1	10.2571	0.627918	-13.6381
745	745	1	10.7111	-0.201428	-13.4923
746	746	1	10.6684	-0.710058	-12.6549
747	747	1	9.80939	-0.277799	-12.9268
748	748	1	9.16554	-0.684145	-12.4039
749	749	1	8.87275	-0.781463	-13.3117
750	750	1	8.45502	-0.176558	-12.6828
751	751	1	7.95725	0.340249	-13.342
752	752	1	7.42158	1.12755	-13.5582
753	753	1	8.31039	1.3706	-13.6632
754	754	1	9.18117	0.963461	-14.1468
755	755	1	8.86244	0.918752	-13.2383
756	756	1	8.29331	0.938085	-12.4182
757	757	1	8.94597	1.57205	-12.1026
758	758	1	9.67677	1.54759	-12.6473
759	759	1	9.88769	2.43606	-12.2831
760	760	1	10.3759	2.37429	-11.4883
761	761	1	9.33445	2.31583	-11.3579
762	762	1	9.99125	2.43061	-10.5871
763	763	1	10.2254	3.21325	-10.1026
764	764	1	9.36289	2.80409	-9.90014
765	765	1	8.59323	3.06535	-10.3446
766	766	1	7.9835	3.4633	-9.79903
767	767	1	8.39114	3.54822	-8.97799
768	768	1	9.15757	3.0367	-8.64651
769	769	1	10.1227	3.29939	-8.53199
770	770	1	10.4504	3.26871	-7.67989
771	771	1	9.6513	3.04313	-7.14017
772	772	1	9.75933	3.96282	-7.32104
773	773	1	10.3424	4.73545	-7.53485
774	774	1	11.4093	4.76295	-7.54242
775	775	1	11.1219	5.43878	-6.90134
776	776	1	10.6718	6.11175	-7.30906
777	777	1	10.7194	7.01734	-7.57118
778	778	1	10.5706	6.96143	-6.64464
779	779	1	10.6678	7.96873	-6.47399
780	780	1	11.3097	8.51234	-6.9818
781	781	1	11.7874	7.93046	-7.61109
782	782	1	12.4459	7.55894	-8.26397
783	783	1	12.2453	7.06126	-7.40833
784	784	1	12.0885	6.12234	-7.27085
785	785	1	12.1658	6.39393	-8.20519
786	786	1	13.0592	6.18493	-8.05256
787	787	1	13.41	6.26131	-7.14149
788	788	1	14.2386	5.85946	-6.69329
789	789	1	15.1177	5.98774	-6.40978
790	790	1	15.9194	5.48971	-6.42972
791	791	1	16.3842	6.22744	-5.80963
792	792	1	17.0165	6.92872	-5.40249
793	793	1	16.5544	7.54531	-5.99868
794	794	1	17.044	6.88783	-6.63941
795	795	1	17.293	6.93292	-7.56234
796	796	1	17.9192	6.42938	-8.11615
797	797	1	18.1019	7.00793	-8.90563
798	798	1	18.3031	6.08873	-9.10794
799	799	1	18.918	6.62079	-9.65477
800	800	1	18.4227	7.45027	-9.82975
801	801	1	26.1699	0	10
802	802	1	25.3878	-0.244956	10.5647
803	803	1	24.6077	0.267574	10.3766
804	804	1	24.3744	1.12166	10.7294
805	805	1	23.5925	0.790815	10.3336
806	806	1	23.8892	0.0193566	9.81817
807	807	1	24.174	0.572118	9.12763
808	808	1	23.7495	1.42846	9.19259
809	809	1	23.651	0.828244	8.45554
810	810	1	23.4833	-0.0901949	8.74446
811	811	1	22.6452	-0.216699	9.34935
812	812	1	22.7915	0.698403	9.51995
813	813	1	22.6631	1.07851	10.4087
814	814	1	21.7069	1.04929	10.1866
815	815	1	21.9504	1.79053	9.53595
816	816	1	21.5335	2.64574	9.73106
817	817	1	22.0481	3.39861	10.0222
818	818	1	22.5978	3.95897	10.6875
819	819	1	23.3682	3.85132	11.2844
820	820	1	22.6823	4.34399	11.7182
821	821	1	21.9635	4.98027	11.8063
822	822	1	22.2168	5.64676	12.4918
823	823	1	21.9131	6.49189	12.0418
824	824	1	21.0363	6.26086	12.3416
825	825	1	20.4734	5.49363	12.708
826	826	1	19.905	5.34828	13.4683
827	827	1	20.1148	4.59879	14.0535
828	828	1	19.8471	3.70039	13.9477
829	829	1	20.59	3.01965	13.7914
830	830	1	21.1877	2.4622	13.2621
831	831	1	20.679	1.64223	13.2314
832	832	1	20.2072	2.24994	12.6308
833	833	1	19.5975	2.3571	13.3962
834	834	1	19.1287	2.28034	12.4704
835	835	1	18.7405	1.52788	12.7275
836	836	1	17.8422	1.25413	12.9385
837	837	1	17.0544	1.57229	12.4461
838	838	1	16.3608	1.75988	13.1383
839	839	1	16.3264	0.976921	12.5235
840	840	1	15.9076	0.979205	13.3565
841	841	1	16.5159	1.26157	14.0792
842	842	1	17.5139	1.40591	14.0461
843	843	1	17.3515	2.08641	13.4099
844	844	1	18.2063	2.17383	13.8587