LAMMPS	polymer	brush	data	file	
					
26175	atoms				
22288	bonds				
0	angles				
0	dihedrals				
0	impropers				
					
5	atom types				
2	bond types				
0	angle types				
0	dihedral types				
0	improper types				
					
-60 60 xlo xhi					
-60 60 ylo yhi					
-70 70 zlo zhi					
					
Masses					
					
1	1				
2	1				
3	1				
4	216				
5	64				
					
Atoms					
					
1	1	1	28.6442	0	-18.5714
2	2	1	28.408	-0.155329	-19.4628
3	3	1	28.2812	0.259408	-20.3073
4	4	1	28.8862	0.657345	-19.6572
5	5	1	29.0246	0.819755	-20.6548
6	6	1	29.1438	0.298573	-21.4169
7	7	1	29.5593	-0.565728	-21.686
8	8	1	28.578	-0.434032	-21.6375
9	9	1	28.6164	-0.969338	-22.441
10	10	1	28.0414	-1.56934	-22.0157
11	11	1	27.4307	-0.867143	-21.9455
12	12	1	27.1435	-1.17597	-22.7645
13	13	1	26.6653	-1.8106	-22.2328
14	14	1	26.5692	-2.45499	-21.5311
15	15	1	27.4849	-2.89113	-21.4278
16	16	1	28.2849	-3.08279	-20.979
17	17	1	28.5648	-4.00037	-20.8489
18	18	1	28.4453	-3.97786	-21.8292
19	19	1	27.6466	-4.12923	-21.2143
20	20	1	28.1933	-4.82817	-20.7934
21	21	1	28.3255	-4.83356	-19.8394
22	22	1	27.6376	-5.36213	-20.1104
23	23	1	27.2337	-4.9092	-20.8631
24	24	1	26.9766	-3.96933	-20.6992
25	25	1	26.5722	-4.33949	-21.4841
26	26	1	25.8998	-3.86173	-21.9172
27	27	1	25.2652	-4.51675	-21.825
28	28	1	24.5275	-4.66219	-21.1793
29	29	1	23.9121	-5.1759	-20.6595
30	30	1	23.9722	-4.35978	-20.1908
31	31	1	23.3082	-4.7827	-19.6975
32	32	1	23.3052	-4.00631	-19.1292
33	33	1	22.4434	-4.41303	-19.1279
34	34	1	22.5798	-3.6031	-19.7403
35	35	1	21.8911	-3.4944	-20.3736
36	36	1	21.8713	-3.29896	-21.2546
37	37	1	21.9731	-3.657	-22.1066
38	38	1	21.912	-4.3212	-21.3474
39	39	1	20.8973	-4.28676	-21.3927
40	40	1	20.5406	-4.41925	-20.5326
41	41	1	19.6779	-4.67436	-20.4053
42	42	1	19.3627	-4.72844	-21.2749
43	43	1	20.008	-4.01492	-21.2232
44	44	1	20.2812	-3.59514	-22.0647
45	45	1	19.5133	-3.21306	-22.4962
46	46	1	19.8121	-2.36814	-22.2437
47	47	1	19.099	-2.73113	-21.7349
48	48	1	18.3179	-2.99053	-22.2634
49	49	1	18.397	-3.9508	-22.3543
50	50	1	17.4564	-4.03837	-22.463
51	51	1	16.5962	-3.51401	-22.5684
52	52	1	16.5538	-4.0117	-21.7157
53	53	1	17.2743	-3.56777	-21.2406
54	54	1	17.3674	-4.5187	-21.3859
55	55	1	17.5348	-5.31009	-21.8469
56	56	1	16.6721	-5.36145	-22.248
57	57	1	16.5794	-6.2953	-22.0382
58	58	1	16.4167	-6.03971	-22.9635
59	59	1	16.9835	-5.93089	-23.7022
60	60	1	16.2588	-6.60398	-23.7433
61	61	1	16.4509	-5.96528	-24.4787
62	62	1	16.105	-6.03648	-25.3624
63	63	1	16.0251	-5.22174	-25.8421
64	64	1	15.3648	-4.92844	-26.4844
65	65	1	14.8642	-4.07781	-26.5684
66	66	1	15.4453	-3.59212	-25.9272
67	67	1	15.4295	-3.4166	-24.9048
68	68	1	15.6615	-3.14766	-23.9452
69	69	1	15.6346	-2.19906	-24.3463
70	70	1	15.9251	-1.31944	-24.4902
71	71	1	15.1566	-0.814664	-24.1651
72	72	1	14.7647	-1.47205	-23.6352
73	73	1	13.8789	-1.65038	-23.4669
74	74	1	13.2255	-2.25478	-23.0773
75	75	1	12.5983	-1.58195	-22.6472
76	76	1	13.0469	-2.1106	-21.9984
77	77	1	12.4143	-2.91951	-22.0528
78	78	1	12.3031	-2.75088	-22.9862
79	79	1	12.2988	-2.21783	-23.784
80	80	1	12.9579	-2.78724	-24.2275
81	81	1	12.8764	-3.65284	-23.767
82	82	1	13.173	-3.76026	-24.6555
83	83	1	13.0292	-4.13231	-25.4762
84	84	1	12.8661	-5.11087	-25.3982
85	85	1	13.8163	-5.24709	-25.3421
86	86	1	14.1395	-4.48918	-25.9524
87	87	1	13.5197	-3.82639	-26.2331
88	88	1	13.8947	-2.97953	-26.1688
89	89	1	12.9705	-2.96493	-26.4932
90	90	1	13.4197	-3.36497	-27.1878
91	91	1	12.8643	-3.07083	-27.981
92	92	1	12.2737	-2.31105	-27.8109
93	93	1	11.4966	-2.40992	-28.3564
94	94	1	10.9359	-3.27546	-28.5032
95	95	1	10.6076	-4.18467	-28.7553
96	96	1	10.5849	-4.70173	-27.9155
97	97	1	10.5945	-5.54821	-28.4673
98	98	1	11.0587	-4.98915	-29.1372
99	99	1	11.0949	-5.53675	-29.9911
100	100	1	11.8225	-5.89569	-30.5605
101	101	1	11.9963	-6.85375	-30.8181
102	102	1	11.205	-6.69571	-30.2377
103	103	1	10.6283	-7.302	-29.7503
104	104	1	10.6234	-7.20022	-28.742
105	105	1	10.4405	-6.5503	-27.9798
106	106	1	9.73002	-5.89816	-28.0613
107	107	1	9.7023	-5.03434	-27.696
108	108	1	8.91006	-5.05127	-26.9955
109	109	1	9.10781	-5.93557	-26.9409
110	110	1	9.73827	-6.25406	-26.2356
111	111	1	9.18955	-6.94586	-25.8718
112	112	1	8.30616	-7.45015	-25.955
113	113	1	8.06479	-8.37432	-26.0875
114	114	1	8.86025	-8.66686	-26.5428
115	115	1	9.24555	-7.79092	-26.5987
116	116	1	9.89392	-7.29108	-27.045
117	117	1	10.5514	-6.62926	-26.8581
118	118	1	11.1548	-6.17714	-26.3033
119	119	1	11.6902	-6.55904	-25.5868
120	120	1	11.9512	-5.75077	-25.3171
121	121	1	12.291	-5.20339	-24.6169
122	122	1	11.6506	-5.86222	-24.3166
123	123	1	12.1571	-6.60494	-24.1479
124	124	1	12.6234	-6.11082	-23.5222
125	125	1	13.0076	-5.55218	-22.9559
126	126	1	13.0144	-6.57322	-22.8178
127	127	1	13.3502	-7.22732	-22.123
128	128	1	12.6962	-7.68178	-22.749
129	129	1	13.6607	-7.84745	-22.7375
130	130	1	13.9946	-7.42236	-23.55
131	131	1	13.2656	-6.70842	-23.8452
132	132	1	13.8671	-6.43039	-23.1711
133	133	1	14.3914	-7.17778	-22.7793
134	134	1	14.7579	-7.96304	-23.1978
135	135	1	15.7232	-7.93764	-22.7151
136	136	1	15.8366	-7.10637	-22.3102
137	137	1	16.1964	-7.8697	-21.8858
138	138	1	15.9169	-7.32322	-21.1846
139	139	1	16.0234	-7.95211	-20.4222
140	140	1	16.3581	-8.21993	-19.5383
141	141	1	17.0032	-8.86866	-19.4482
142	142	1	16.7746	-8.58272	-18.5587
143	143	1	16.1402	-8.04355	-18.0749
144	144	1	16.3405	-7.12625	-17.926
145	145	1	15.9109	-7.5305	-17.144
146	146	1	16.0308	-6.55234	-17.0417
147	147	1	16.3615	-6.40855	-16.0689
148	148	1	16.7478	-5.54295	-15.851
149	149	1	15.7517	-5.65814	-15.9545
150	150	1	15.5726	-4.80866	-15.4637
151	151	1	16.3077	-5.26173	-15.0244
152	152	1	16.7865	-4.93134	-14.2288
153	153	1	17.678	-4.59045	-14.0973
154	154	1	17.5094	-3.65035	-14.0031
155	155	1	17.285	-2.71286	-13.8599
156	156	1	17.0586	-1.90407	-13.2134
157	157	1	17.5079	-1.78217	-14.0318
158	158	1	16.6212	-1.47815	-14.222
159	159	1	15.9716	-0.810885	-13.8754
160	160	1	15.2381	-0.462769	-13.4152
161	161	1	14.5855	0.279393	-13.4656
162	162	1	14.6786	-0.233446	-14.317
163	163	1	13.8676	-0.757906	-14.0596
164	164	1	13.8613	-0.408654	-14.9487
165	165	1	14.7167	-0.579671	-15.4661
166	166	1	15.1523	-1.08067	-14.8117
167	167	1	15.9485	-0.587861	-14.8505
168	168	1	15.5278	0.192405	-14.369
169	169	1	15.4344	0.867247	-15.0781
170	170	1	15.264	0.363748	-15.922
171	171	1	14.9349	-0.282526	-16.5996
172	172	1	14.0467	-0.45293	-16.3326
173	173	1	13.0981	-0.61847	-15.9548
174	174	1	12.4977	-0.350826	-16.759
175	175	1	13.0405	0.221179	-17.3463
176	176	1	12.1077	0.345362	-17.6174
177	177	1	11.6494	1.14188	-18.0773
178	178	1	10.7712	0.735701	-18.1843
179	179	1	10.3821	1.57587	-17.9849
180	180	1	10.5303	1.34053	-18.9127
181	181	1	11.193	1.42556	-19.6493
182	182	1	10.8682	2.2236	-19.0702
183	183	1	10.4944	2.42961	-19.9468
184	184	1	10.4677	1.69221	-20.5805
185	185	1	11.3603	1.47342	-20.785
186	186	1	12.322	1.21164	-20.8767
187	187	1	12.6943	1.53906	-20.0526
188	188	1	12.554	0.632613	-19.8349
189	189	1	13.4358	0.287639	-19.6823
190	190	1	13.2267	0.087138	-20.6459
191	191	1	13.3396	1.01947	-20.5426
192	192	1	13.0853	0.631397	-21.4241
193	193	1	12.2087	0.730447	-21.8374
194	194	1	12.7573	1.51064	-21.9268
195	195	1	13.7156	1.64623	-22.3054
196	196	1	13.6055	2.30358	-22.963
197	197	1	13.557	2.19197	-23.9892
198	198	1	13.0136	2.97873	-23.7478
199	199	1	12.9477	3.94513	-23.6022
200	200	1	12.9233	3.98232	-22.6525
201	201	1	27.4071	0	-15.7143
202	202	1	26.5872	-0.424249	-16.0517
203	203	1	26.1246	-1.21409	-16.4381
204	204	1	26.6068	-0.971366	-17.2285
205	205	1	27.1466	-1.5192	-17.6739
206	206	1	26.4782	-2.1698	-17.683
207	207	1	26.0398	-2.41137	-18.5107
208	208	1	26.2708	-1.60114	-18.9864
209	209	1	25.662	-0.968773	-18.5966
210	210	1	24.9626	-1.23777	-19.2406
211	211	1	24.7836	-2.13359	-18.9637
212	212	1	25.437	-2.72671	-19.3266
213	213	1	24.5741	-3.05974	-19.6603
214	214	1	23.8253	-2.96272	-19.0853
215	215	1	23.725	-3.53111	-18.3795
216	216	1	22.8559	-3.25016	-18.4729
217	217	1	22.6951	-2.9043	-17.6148
218	218	1	23.0281	-3.25342	-16.8175
219	219	1	22.169	-3.82987	-16.6947
220	220	1	22.3911	-3.56154	-15.8385
221	221	1	22.5942	-4.43449	-16.1475
222	222	1	22.2375	-4.74249	-16.9772
223	223	1	21.3191	-4.7657	-16.843
224	224	1	21.3277	-5.11293	-15.9792
225	225	1	20.5306	-5.19784	-15.4198
226	226	1	20.06	-5.83219	-16.0085
227	227	1	20.6471	-6.12926	-16.7091
228	228	1	20.6657	-7.01497	-17.0126
229	229	1	20.5189	-7.35341	-16.1548
230	230	1	20.679	-8.12403	-16.7499
231	231	1	19.8829	-8.49826	-16.4003
232	232	1	19.7879	-8.8479	-17.3041
233	233	1	18.8735	-8.91597	-16.965
234	234	1	18.1349	-9.50272	-16.6499
235	235	1	17.8837	-9.41954	-15.7142
236	236	1	17.6397	-10.1428	-15.1019
237	237	1	18.0924	-10.4521	-14.2712
238	238	1	17.3879	-11.0213	-14.0485
239	239	1	16.763	-11.3054	-14.6831
240	240	1	16.5034	-11.3267	-15.6214
241	241	1	16.4363	-10.9237	-16.5825
242	242	1	16.1003	-10.4229	-17.3519
243	243	1	15.1772	-10.4554	-17.5213
244	244	1	14.8387	-11.3011	-17.8484
245	245	1	15.1538	-12.0259	-18.3965
246	246	1	15.263	-12.7905	-19.0075
247	247	1	15.158	-12.8343	-19.9244
248	248	1	16.0827	-12.688	-19.8609
249	249	1	16.7696	-12.6525	-20.5197
250	250	1	16.9952	-13.0575	-19.7324
251	251	1	17.8338	-12.5005	-19.843
252	252	1	18.0187	-13.0821	-19.0869
253	253	1	17.5328	-12.6874	-18.3984
254	254	1	16.9085	-13.3718	-18.1824
255	255	1	17.7701	-13.7389	-18.289
256	256	1	18.0854	-14.1104	-17.49
257	257	1	17.971	-14.8594	-16.811
258	258	1	17.4339	-14.8736	-15.9789
259	259	1	16.9152	-14.2003	-15.5224
260	260	1	16.7533	-14.9567	-15.0372
261	261	1	16.3676	-15.4956	-14.3532
262	262	1	16.4117	-14.6244	-14.005
263	263	1	16.2119	-14.9368	-13.1465
264	264	1	16.0718	-15.8836	-13.293
265	265	1	15.6556	-16.4252	-13.9906
266	266	1	15.1274	-16.4561	-14.8189
267	267	1	14.1885	-16.2794	-14.7556
268	268	1	14.1621	-15.8328	-15.6617
269	269	1	13.8129	-16.6271	-16.1872
270	270	1	13.623	-15.722	-16.602
271	271	1	13.1636	-15.014	-17.1178
272	272	1	12.8203	-14.9943	-16.2644
273	273	1	12.5624	-15.9094	-16.5105
274	274	1	11.6453	-15.5485	-16.2666
275	275	1	11.3	-14.7285	-15.9372
276	276	1	11.3093	-15.3155	-15.1681
277	277	1	10.8678	-15.8526	-14.5047
278	278	1	10.8	-16.4453	-13.7395
279	279	1	10.8301	-16.8838	-14.5758
280	280	1	9.92029	-16.7496	-14.3197
281	281	1	9.93407	-16.5558	-15.2494
282	282	1	9.79096	-17.4346	-14.8801
283	283	1	10.249	-18.0297	-14.3178
284	284	1	10.8062	-18.7163	-13.9772
285	285	1	11.2522	-17.9276	-14.2761
286	286	1	11.4656	-17.2325	-13.5962
287	287	1	12.037	-16.8958	-12.8532
288	288	1	12.6073	-16.1995	-13.2707
289	289	1	13.4496	-16.0393	-13.7136
290	290	1	12.9456	-16.2776	-14.5196
291	291	1	12.0105	-16.1341	-14.6312
292	292	1	11.6576	-16.117	-13.672
293	293	1	11.8306	-15.1972	-13.8694
294	294	1	11.3284	-14.6163	-13.3217
295	295	1	11.0594	-15.5405	-13.4087
296	296	1	10.8124	-15.7379	-12.5232
297	297	1	10.2106	-15.0587	-12.2222
298	298	1	9.41022	-15.49	-12.5393
299	299	1	9.87106	-15.8676	-11.7622
300	300	1	9.70786	-16.4358	-12.46
301	301	1	9.06363	-16.247	-13.1635
302	302	1	8.34777	-16.7046	-12.7955
303	303	1	8.01912	-16.7511	-13.702
304	304	1	7.7532	-16.0438	-14.3076
305	305	1	8.30249	-16.2863	-15.0356
306	306	1	8.5087	-16.8465	-15.732
307	307	1	8.8425	-16.0032	-16.1011
308	308	1	8.5682	-16.4174	-16.8807
309	309	1	7.56493	-16.6476	-16.7698
310	310	1	7.27653	-16.2067	-15.9347
311	311	1	7.28894	-15.7333	-16.8244
312	312	1	7.91858	-15.3157	-17.3826
313	313	1	8.08436	-14.3997	-17.2642
314	314	1	8.17397	-13.4797	-17.4299
315	315	1	8.78231	-13.7788	-18.1266
316	316	1	9.59964	-13.3559	-17.759
317	317	1	9.04345	-12.4886	-17.8243
318	318	1	8.33023	-12.2714	-17.1028
319	319	1	7.42202	-11.909	-17.1928
320	320	1	7.37873	-10.9275	-17.3309
321	321	1	7.63262	-10.6249	-16.4067
322	322	1	8.33917	-9.99816	-15.9611
323	323	1	9.0399	-9.52148	-15.5722
324	324	1	8.57676	-8.83745	-16.1086
325	325	1	8.63975	-7.9354	-15.9893
326	326	1	9.20452	-7.26936	-16.4375
327	327	1	9.57865	-7.68585	-15.6688
328	328	1	10.1874	-7.57958	-14.9701
329	329	1	10.182	-6.9651	-15.7492
330	330	1	9.85542	-6.46188	-16.4791
331	331	1	9.9073	-6.09868	-17.4084
332	332	1	10.8822	-6.15985	-17.5336
333	333	1	11.3379	-5.8946	-18.3286
334	334	1	10.8452	-5.42031	-19.0592
335	335	1	9.9384	-5.46743	-19.3986
336	336	1	10.0907	-6.39213	-19.5632
337	337	1	9.71388	-6.81277	-20.4912
338	338	1	9.44514	-5.93981	-20.2625
339	339	1	9.32671	-6.1523	-21.1504
340	340	1	8.90116	-5.37721	-20.7964
341	341	1	9.11532	-4.97124	-19.953
342	342	1	9.40497	-4.13776	-19.5725
343	343	1	8.76239	-3.62384	-20.0022
344	344	1	8.49039	-4.19307	-19.1812
345	345	1	8.05127	-5.03748	-19.1495
346	346	1	7.90336	-5.99332	-19.2646
347	347	1	8.04333	-6.79419	-18.8609
348	348	1	7.42954	-7.45187	-18.958
349	349	1	6.82781	-6.65298	-19.1095
350	350	1	6.72601	-6.91236	-18.2233
351	351	1	5.9118	-6.79774	-18.7409
352	352	1	5.76028	-7.10058	-17.8641
353	353	1	6.23114	-7.89283	-17.8238
354	354	1	5.5176	-8.01598	-18.4956
355	355	1	4.93307	-7.32397	-18.7356
356	356	1	3.99762	-7.31268	-19.0505
357	357	1	3.84401	-6.34499	-19.1058
358	358	1	3.72135	-6.87207	-19.8904
359	359	1	3.3957	-6.20414	-20.5513
360	360	1	2.88728	-6.44667	-19.7546
361	361	1	3.40103	-5.70567	-19.7789
362	362	1	3.01011	-5.11878	-20.333
363	363	1	2.80477	-4.26973	-20.7722
364	364	1	3.64701	-3.95716	-20.536
365	365	1	3.4376	-4.03005	-19.5818
366	366	1	4.19713	-4.04137	-19.0576
367	367	1	5.08537	-3.74709	-18.9123
368	368	1	5.35822	-2.86414	-18.503
369	369	1	4.36918	-3.13125	-18.5292
370	370	1	4.75735	-2.90896	-19.4156
371	371	1	4.14392	-3.03071	-20.1251
372	372	1	3.75023	-2.23671	-19.846
373	373	1	3.77887	-3.05934	-19.2895
374	374	1	2.95029	-3.44718	-18.8459
375	375	1	2.8487	-4.35017	-18.94
376	376	1	3.20782	-5.02402	-18.373
377	377	1	3.03359	-5.30212	-17.4571
378	378	1	3.08809	-5.26208	-16.5091
379	379	1	4.01313	-5.25904	-16.196
380	380	1	4.58066	-4.74699	-15.4985
381	381	1	4.04857	-4.33437	-14.7517
382	382	1	3.10449	-4.34795	-14.6019
383	383	1	2.12386	-4.23979	-14.6429
384	384	1	2.21413	-3.94478	-13.6956
385	385	1	1.27887	-4.04526	-14.0324
386	386	1	1.40353	-3.19308	-14.4329
387	387	1	1.03131	-3.8167	-15.0114
388	388	1	0.144033	-4.05773	-15.3873
389	389	1	0.481435	-4.96369	-15.3054
390	390	1	0.00597667	-4.70959	-14.5211
391	391	1	0.727776	-4.85101	-13.8964
392	392	1	1.19691	-4.87907	-13.0913
393	393	1	1.71706	-5.62134	-13.4442
394	394	1	1.46793	-5.39755	-14.328
395	395	1	1.42471	-6.3858	-14.2793
396	396	1	0.879118	-5.94053	-14.8705
397	397	1	1.32805	-5.42091	-15.6433
398	398	1	1.36672	-4.56675	-15.2328
399	399	1	1.217	-4.14682	-16.0579
400	400	1	0.615376	-3.37231	-16.1083
401	401	1	26.6701	0	-12.8571
402	402	1	25.8538	-0.499826	-12.6432
403	403	1	25.3065	-0.512968	-11.766
404	404	1	24.9229	-1.37817	-11.8119
405	405	1	24.5442	-1.8334	-11.0619
406	406	1	24.7284	-2.63543	-10.5799
407	407	1	23.8174	-2.37862	-10.2766
408	408	1	23.0933	-1.77395	-10.5616
409	409	1	23.6649	-1.01491	-10.6162
410	410	1	24.4628	-0.579185	-10.9646
411	411	1	24.8316	-0.813063	-10.122
412	412	1	24.1612	-0.125547	-10.0932
413	413	1	23.3458	0.439487	-10.1846
414	414	1	22.5418	-0.0636044	-10.4548
415	415	1	22.3461	0.57635	-9.74292
416	416	1	21.3824	0.477023	-9.63711
417	417	1	20.5207	0.496463	-10.1406
418	418	1	19.5752	0.287045	-9.84906
419	419	1	20.2714	-0.165314	-9.33333
420	420	1	19.6421	0.0668188	-8.5794
421	421	1	20.3109	0.610493	-8.13437
422	422	1	21.0978	0.25009	-8.53967
423	423	1	21.4514	-0.383267	-9.16631
424	424	1	21.2239	-1.11166	-9.70494
425	425	1	21.25	-1.18145	-10.7103
426	426	1	21.6783	-1.7989	-10.1694
427	427	1	21.0949	-2.2996	-10.7318
428	428	1	21.5199	-1.86825	-11.5348
429	429	1	20.903	-1.41756	-12.1532
430	430	1	20.0794	-1.91562	-12.5006
431	431	1	20.3953	-1.14479	-12.8831
432	432	1	20.5416	-1.16866	-13.8236
433	433	1	20.6094	-1.65014	-14.6762
434	434	1	20.2366	-2.53174	-14.6646
435	435	1	19.6778	-2.87269	-14.0148
436	436	1	19.4699	-3.59722	-14.5887
437	437	1	18.8523	-3.10877	-13.8682
438	438	1	19.1462	-2.87042	-12.9894
439	439	1	18.6404	-3.65191	-12.8543
440	440	1	19.6569	-3.73277	-12.778
441	441	1	19.137	-4.43141	-13.0557
442	442	1	19.3766	-4.26771	-12.1136
443	443	1	18.7088	-5.00025	-11.9595
444	444	1	19.5191	-5.278	-12.341
445	445	1	20.1091	-4.84274	-12.9823
446	446	1	20.6022	-5.72821	-12.8029
447	447	1	20.8701	-6.65805	-12.8487
448	448	1	21.6702	-7.23841	-12.5923
449	449	1	20.8703	-7.43274	-12.1247
450	450	1	21.0976	-7.20202	-11.2413
451	451	1	21.889	-7.49219	-11.6698
452	452	1	22.0214	-8.44259	-11.8238
453	453	1	22.498	-7.8973	-12.4274
454	454	1	23.3264	-7.54573	-11.9515
455	455	1	23.5763	-6.95314	-12.6942
456	456	1	23.9676	-6.39527	-13.3186
457	457	1	23.5959	-5.50036	-13.4163
458	458	1	22.7306	-5.5562	-13.8015
459	459	1	22.3221	-5.22757	-14.6496
460	460	1	22.1991	-4.75108	-13.8184
461	461	1	21.2375	-4.71252	-14.0363
462	462	1	20.5687	-5.37753	-13.8447
463	463	1	19.8463	-5.18885	-14.4235
464	464	1	19.0252	-4.76449	-14.8192
465	465	1	19.1581	-5.40644	-15.5727
466	466	1	18.6571	-5.99172	-16.0986
467	467	1	18.5616	-5.93611	-17.0808
468	468	1	17.6766	-6.19576	-17.3805
469	469	1	17.7275	-5.64094	-18.167
470	470	1	16.9073	-6.04471	-17.911
471	471	1	16.9324	-6.43308	-18.781
472	472	1	16.0377	-6.82174	-18.7682
473	473	1	16.0806	-5.93376	-18.4639
474	474	1	15.6372	-5.57181	-17.7484
475	475	1	15.2693	-4.69064	-17.95
476	476	1	14.947	-3.87357	-17.6669
477	477	1	14.6111	-3.36925	-16.8604
478	478	1	14.2904	-3.80904	-16.068
479	479	1	13.3728	-4.15325	-16.1781
480	480	1	13.7805	-4.87094	-15.5681
481	481	1	14.68	-4.84577	-16.0094
482	482	1	14.7471	-4.6091	-16.8979
483	483	1	14.2999	-5.13574	-17.5264
484	484	1	13.4123	-4.70367	-17.4353
485	485	1	13.211	-5.61962	-17.5151
486	486	1	12.4413	-5.87521	-18.0658
487	487	1	12.4302	-6.74084	-18.4061
488	488	1	13.3554	-6.7305	-18.2199
489	489	1	13.6452	-7.57583	-18.5756
490	490	1	14.3463	-8.18611	-18.7919
491	491	1	14.575	-8.85821	-18.2119
492	492	1	15.1924	-9.56087	-17.9252
493	493	1	16.0584	-9.18827	-17.6153
494	494	1	15.3922	-8.64576	-17.1965
495	495	1	15.9776	-9.07567	-16.5947
496	496	1	16.1379	-10.091	-16.355
497	497	1	15.2092	-10.1972	-16.363
498	498	1	14.4871	-9.84671	-16.8844
499	499	1	13.7145	-10.2049	-17.2877
500	500	1	14.215	-9.87599	-18.002
501	501	1	13.372	-9.84674	-18.6032
502	502	1	12.8022	-9.07792	-18.5997
503	503	1	12.9574	-9.57022	-19.4998
504	504	1	12.7838	-8.6333	-19.5984
505	505	1	12.8595	-7.69679	-19.3787
506	506	1	12.1064	-7.90919	-19.9933
507	507	1	11.7864	-7.16134	-19.5808
508	508	1	10.9054	-6.99665	-19.9761
509	509	1	11.5937	-6.35655	-20.0078
510	510	1	11.9513	-6.98047	-20.7213
511	511	1	12.0492	-7.2017	-21.7591
512	512	1	11.4524	-7.86951	-21.4132
513	513	1	11.997	-8.65741	-21.2762
514	514	1	11.5761	-9.48961	-21.2026
515	515	1	11.8388	-10.0399	-20.4223
516	516	1	11.572	-10.7869	-20.9955
517	517	1	10.8869	-10.922	-21.6601
518	518	1	10.5471	-11.8059	-21.419
519	519	1	10.6459	-11.165	-20.671
520	520	1	9.70678	-11.0786	-20.4985
521	521	1	8.90748	-11.3702	-19.9831
522	522	1	8.30492	-10.8123	-20.5743
523	523	1	7.59166	-10.9643	-21.3455
524	524	1	7.13587	-10.9584	-22.2216
525	525	1	7.52243	-10.1164	-22.4388
526	526	1	7.80018	-9.5	-21.7812
527	527	1	7.71209	-8.85723	-22.5988
528	528	1	6.81107	-9.2007	-22.0993
529	529	1	6.5777	-8.39941	-21.5921
530	530	1	7.59742	-8.56378	-21.7237
531	531	1	8.28998	-8.61741	-21.002
532	532	1	8.73762	-7.76622	-21.1506
533	533	1	8.65367	-7.16105	-20.4137
534	534	1	8.14012	-6.88334	-21.1571
535	535	1	7.22425	-7.45032	-21.092
536	536	1	7.37463	-7.27179	-22.0098
537	537	1	7.29977	-7.0567	-22.9851
538	538	1	6.75707	-7.75679	-22.6252
539	539	1	6.65261	-8.66562	-23.0017
540	540	1	5.75036	-8.29542	-22.9624
541	541	1	5.28072	-9.13128	-23.1249
542	542	1	5.19421	-9.36524	-24.0413
543	543	1	4.55001	-9.89342	-24.5297
544	544	1	5.17593	-10.2028	-25.1288
545	545	1	4.52564	-9.59063	-25.4548
546	546	1	5.35237	-9.76333	-26.1157
547	547	1	4.91761	-10.2502	-26.8658
548	548	1	4.62344	-9.85196	-27.7604
549	549	1	4.17993	-9.03285	-27.4418
550	550	1	3.22643	-8.90832	-27.2209
551	551	1	2.64782	-8.56391	-26.5208
552	552	1	3.11681	-7.95781	-26.0408
553	553	1	3.67555	-8.06785	-26.8134
554	554	1	3.02542	-7.28603	-26.7307
555	555	1	2.22502	-6.74325	-26.8419
556	556	1	2.09948	-5.79306	-26.7844
557	557	1	2.1772	-5.14128	-27.483
558	558	1	1.36573	-5.64346	-27.7046
559	559	1	1.11242	-5.56921	-28.6147
560	560	1	2.031	-5.46846	-28.9507
561	561	1	2.4109	-6.11271	-29.5449
562	562	1	1.52101	-6.35772	-29.301
563	563	1	1.981	-6.66048	-28.5657
564	564	1	2.04266	-7.46309	-28.1091
565	565	1	1.30295	-7.37614	-27.5147
566	566	1	0.531646	-7.28093	-26.9581
567	567	1	0.697945	-7.1204	-26.0747
568	568	1	0.326491	-6.43727	-26.7064
569	569	1	-0.0891505	-5.92186	-26.0192
570	570	1	-0.279912	-5.30438	-26.8327
571	571	1	0.100985	-5.26098	-27.6774
572	572	1	-0.03681	-4.85866	-28.6033
573	573	1	-0.494488	-4.01063	-28.6391
574	574	1	-0.764632	-3.23981	-29.1821
575	575	1	-1.28132	-4.04209	-29.3095
576	576	1	-1.13436	-4.8646	-29.7314
577	577	1	-1.41127	-4.67682	-30.6413
578	578	1	-1.7095	-4.47627	-31.617
579	579	1	-1.75601	-4.87731	-32.4609
580	580	1	-1.12493	-5.67523	-32.4325
581	581	1	-0.781228	-5.03993	-31.7516
582	582	1	-0.305172	-4.38363	-32.2899
583	583	1	0.270926	-4.0895	-31.6033
584	584	1	0.277351	-3.21633	-32.0025
585	585	1	0.722785	-3.07516	-31.1507
586	586	1	1.16435	-2.45245	-30.5176
587	587	1	1.69107	-1.73445	-30.1906
588	588	1	2.55118	-2.05298	-30.0054
589	589	1	2.77265	-2.37168	-30.8867
590	590	1	3.65146	-2.01427	-30.7572
591	591	1	3.38925	-1.29487	-31.3859
592	592	1	3.77737	-2.08142	-31.8553
593	593	1	3.62963	-3.00555	-31.6353
594	594	1	3.65124	-3.59051	-32.3581
595	595	1	3.54884	-3.89799	-33.2645
596	596	1	2.59593	-4.04609	-33.0892
597	597	1	2.21495	-3.16315	-33.311
598	598	1	1.53372	-3.11067	-32.6479
599	599	1	0.707396	-3.62373	-32.8678
600	600	1	1.31834	-3.35461	-33.5711
601	601	1	26.1699	0	-10
602	602	1	25.388	0.378118	-10.4547
603	603	1	24.988	0.505736	-11.2801
604	604	1	24.8411	1.42947	-11.311
605	605	1	25.4206	1.73824	-12.0472
606	606	1	25.8555	1.15411	-12.6339
607	607	1	25.5518	0.974512	-13.5717
608	608	1	25.7248	1.82404	-14.0569
609	609	1	25.2362	2.05624	-14.8962
610	610	1	25.2537	1.35011	-15.5579
611	611	1	24.8721	1.04663	-16.3728
612	612	1	24.2729	1.74189	-16.6936
613	613	1	24.4939	2.212	-15.8753
614	614	1	23.4971	2.22003	-15.7152
615	615	1	22.6666	2.55695	-15.4349
616	616	1	22.624	1.89149	-16.1481
617	617	1	22.0099	1.14846	-16.437
618	618	1	21.5374	0.624215	-17.0963
619	619	1	21.9591	0.0441794	-16.4737
620	620	1	21.4967	-0.456967	-15.815
621	621	1	21.257	-1.1798	-15.2024
622	622	1	20.6573	-0.473443	-15.3568
623	623	1	20.5705	-0.049695	-14.4575
624	624	1	20.8297	0.840439	-14.8514
625	625	1	21.262	1.66076	-15.1981
626	626	1	20.6572	1.13692	-15.7934
627	627	1	20.6897	0.213614	-16.1592
628	628	1	19.9969	0.547746	-15.5274
629	629	1	19.48	-0.166247	-15.8073
630	630	1	19.3701	-1.07499	-15.5306
631	631	1	20.2302	-1.05584	-15.8737
632	632	1	20.946	-1.67505	-16.1831
633	633	1	21.4196	-1.12874	-16.8101
634	634	1	20.5731	-1.29013	-17.1358
635	635	1	20.0615	-1.88311	-16.5917
636	636	1	19.7752	-0.994629	-16.7275
637	637	1	19.1424	-0.436795	-17.137
638	638	1	18.2059	-0.418465	-17.0778
639	639	1	18.509	-0.149368	-16.208
640	640	1	17.5639	-0.352743	-16.2263
641	641	1	16.8445	0.272034	-15.8471
642	642	1	16.5058	1.18881	-16.2128
643	643	1	16.6455	2.02388	-15.6857
644	644	1	15.8806	2.47119	-15.1998
645	645	1	16.0591	3.38869	-15.5403
646	646	1	16.0763	3.86036	-16.4104
647	647	1	17.0472	4.03841	-16.4566
648	648	1	16.9847	4.70132	-17.1507
649	649	1	17.1625	4.65263	-18.0765
650	650	1	17.0795	3.81186	-18.5157
651	651	1	16.31	4.28344	-18.5967
652	652	1	17.0922	4.62687	-19.1071
653	653	1	17.2874	5.31436	-19.7521
654	654	1	18.2332	5.18024	-19.5622
655	655	1	18.4141	4.19921	-19.6788
656	656	1	19.183	4.04203	-20.2228
657	657	1	18.4734	3.73331	-20.7877
658	658	1	17.7376	3.58874	-20.0799
659	659	1	17.3554	2.93106	-19.5784
660	660	1	16.9913	3.11286	-20.4993
661	661	1	16.5968	2.25382	-20.7654
662	662	1	16.5455	2.50892	-21.7157
663	663	1	17.4074	2.0933	-21.7494
664	664	1	18.0689	1.84243	-21.0074
665	665	1	18.1256	1.36674	-20.1447
666	666	1	17.6316	0.692656	-19.6588
667	667	1	16.7342	1.12548	-19.7411
668	668	1	17.3913	1.87892	-19.6116
669	669	1	16.8246	1.55489	-18.8991
670	670	1	16.3837	2.38546	-19.0367
671	671	1	16.3038	2.75156	-18.1261
672	672	1	15.8294	2.63689	-17.3435
673	673	1	15.7198	1.81681	-16.8008
674	674	1	16.0966	1.68234	-17.669
675	675	1	15.6719	0.766791	-17.5451
676	676	1	16.3816	0.247251	-18.0416
677	677	1	16.3133	-0.640723	-17.4886
678	678	1	15.9998	-0.624647	-16.5444
679	679	1	15.776	-1.33317	-17.193
680	680	1	15.1253	-1.82592	-17.7312
681	681	1	15.0789	-2.70372	-17.3275
682	682	1	15.3036	-2.66308	-18.2941
683	683	1	15.389	-2.63743	-19.2734
684	684	1	16.1388	-2.31646	-18.7584
685	685	1	15.5737	-1.54364	-18.9549
686	686	1	15.904	-1.99965	-19.727
687	687	1	15.2007	-2.21382	-20.4236
688	688	1	15.8724	-2.8998	-20.6026
689	689	1	16.6003	-3.47065	-20.4594
690	690	1	16.7842	-4.37876	-20.505
691	691	1	16.8788	-4.37164	-19.519
692	692	1	17.7144	-4.87595	-19.3047
693	693	1	18.3564	-4.38197	-19.7768
694	694	1	17.9416	-3.86724	-20.4912
695	695	1	17.8664	-3.50294	-19.5948
696	696	1	18.1083	-2.55311	-19.5781
697	697	1	18.0606	-1.58078	-19.47
698	698	1	18.7456	-0.931837	-19.6117
699	699	1	19.1202	-0.120576	-19.9674
700	700	1	18.6319	0.309107	-19.2795
701	701	1	19.1724	-0.372536	-18.7152
702	702	1	18.3651	-0.805424	-18.3703
703	703	1	17.7753	-0.0855533	-18.5862
704	704	1	17.5315	-0.977092	-18.9459
705	705	1	16.8974	-0.660329	-18.3197
706	706	1	16.6471	-1.40992	-18.8337
707	707	1	16.1136	-0.894681	-19.4197
708	708	1	15.3341	-0.488857	-18.8776
709	709	1	14.563	-0.550389	-18.2332
710	710	1	14.4385	0.233352	-18.8248
711	711	1	13.8646	-0.543348	-19.1098
712	712	1	13.526	-1.36125	-18.7566
713	713	1	14.5603	-1.33774	-18.9139
714	714	1	13.8817	-1.76888	-19.5987
715	715	1	14.1612	-2.65608	-19.1848
716	716	1	13.4457	-3.01851	-18.6356
717	717	1	13.0942	-2.58999	-19.4389
718	718	1	12.634	-3.41305	-19.213
719	719	1	11.7039	-3.51265	-18.9983
720	720	1	11.4994	-3.19101	-18.1375
721	721	1	10.6955	-3.55225	-18.4343
722	722	1	10.7325	-2.92644	-17.7003
723	723	1	9.86833	-3.2751	-17.5317
724	724	1	9.08522	-2.72518	-17.4904
725	725	1	8.08936	-2.69904	-17.6192
726	726	1	7.51201	-1.95391	-17.3237
727	727	1	7.81353	-2.26479	-16.4968
728	728	1	6.94362	-1.90856	-16.2501
729	729	1	6.27304	-2.58651	-15.9183
730	730	1	6.66336	-2.58102	-16.8735
731	731	1	6.13827	-3.33886	-17.1781
732	732	1	5.33407	-3.82269	-16.9015
733	733	1	4.68378	-4.51147	-16.5825
734	734	1	4.95745	-5.00072	-17.365
735	735	1	4.96713	-4.19242	-17.767
736	736	1	5.75333	-4.75664	-18.0129
737	737	1	6.42396	-4.48161	-18.6772
738	738	1	6.94467	-3.59786	-18.5797
739	739	1	7.29293	-4.15517	-19.1834
740	740	1	7.71783	-3.55503	-19.7805
741	741	1	8.20507	-2.79182	-19.879
742	742	1	7.8124	-3.20799	-20.7479
743	743	1	7.02954	-2.77114	-20.3256
744	744	1	6.94162	-2.89758	-19.4157
745	745	1	6.17751	-3.00532	-18.9206
746	746	1	5.71385	-2.40862	-19.5548
747	747	1	6.20331	-1.71107	-20.0758
748	748	1	5.49431	-2.24962	-20.5376
749	749	1	6.18161	-1.91601	-21.1494
750	750	1	6.98188	-2.27543	-21.4249
751	751	1	7.29332	-2.38664	-22.3236
752	752	1	8.08713	-1.87545	-22.8081
753	753	1	7.96626	-1.14339	-23.5168
754	754	1	7.75234	-2.11762	-23.679
755	755	1	7.71308	-2.28776	-24.6166
756	756	1	8.53646	-2.11411	-24.1754
757	757	1	9.06043	-1.59061	-23.5055
758	758	1	9.99072	-1.54028	-23.3315
759	759	1	10.9694	-1.36956	-23.3342
760	760	1	10.494	-1.02216	-24.0725
761	761	1	9.68735	-0.556688	-24.0029
762	762	1	9.9875	-0.723127	-24.8928
763	763	1	9.02507	-0.549914	-25.0238
764	764	1	8.21935	-0.0604791	-25.1797
765	765	1	8.22286	-0.215853	-26.1347
766	766	1	8.49016	0.669208	-26.3394
767	767	1	8.81446	1.4646	-25.9421
768	768	1	9.01946	0.657884	-25.4975
769	769	1	8.17442	1.01239	-25.3395
770	770	1	7.93914	0.607417	-24.4549
771	771	1	7.96024	0.348773	-23.5434
772	772	1	8.30859	-0.480744	-23.1002
773	773	1	8.70594	0.331288	-22.8522
774	774	1	8.93829	-0.378659	-22.1943
775	775	1	8.83414	0.491869	-21.7714
776	776	1	7.85818	0.550363	-21.6016
777	777	1	7.78421	0.0846833	-22.4161
778	778	1	8.09878	-0.487089	-21.7157
779	779	1	7.58684	-1.10157	-21.2488
780	780	1	6.85038	-0.993146	-21.9575
781	781	1	6.48013	-1.30282	-22.7454
782	782	1	7.15223	-0.753269	-23.127
783	783	1	7.00763	0.213258	-23.0439
784	784	1	6.8591	1.04549	-22.612
785	785	1	7.48205	1.27814	-23.2717
786	786	1	6.66087	1.34049	-23.7352
787	787	1	6.13508	1.91789	-23.109
788	788	1	6.89164	2.22661	-23.5816
789	789	1	7.303	1.81163	-24.3623
790	790	1	7.40826	2.7993	-24.3928
791	791	1	7.5325	3.24927	-25.2518
792	792	1	7.78785	4.13451	-25.5877
793	793	1	8.44997	4.01958	-24.9145
794	794	1	9.28509	4.49125	-24.7914
795	795	1	9.44096	5.39244	-25.0031
796	796	1	10.2784	5.44413	-25.4257
797	797	1	11.2467	5.66849	-25.5059
798	798	1	12.0825	6.10192	-25.8646
799	799	1	12.7628	6.3646	-25.248
800	800	1	13.096	7.01423	-25.8585
801	801	1	26.1699	0	10
802	802	1	25.4637	-0.00787737	9.36934
803	803	1	25.141	0.462103	8.57776
804	804	1	24.6091	0.475393	9.34828
805	805	1	24.0232	1.20116	9.39982
806	806	1	24.8428	1.70011	9.14009
807	807	1	24.5008	2.38332	8.58467
808	808	1	23.8139	1.73988	8.40659
809	809	1	23.4939	0.898056	8.11759
810	810	1	23.4171	1.32783	7.23353
811	811	1	22.5442	1.74038	6.98405
812	812	1	21.7424	1.72127	7.64209
813	813	1	21.0234	1.91974	8.28461
814	814	1	20.1745	2.26985	8.61996
815	815	1	19.9508	2.93487	9.35367
816	816	1	19.1931	3.48441	9.40727
817	817	1	19.1329	4.44294	9.31444
818	818	1	19.105	4.79537	8.38437
819	819	1	18.6011	4.60755	7.57254
820	820	1	19.4902	4.99685	7.37918
821	821	1	19.2538	4.41708	6.55615
822	822	1	20.0029	3.70059	6.42905
823	823	1	20.3946	2.81409	6.45414
824	824	1	21.1583	2.31421	6.87368
825	825	1	21.1406	1.3803	7.05557
826	826	1	21.5388	0.821479	7.7074
827	827	1	21.62	1.22003	8.59694
828	828	1	22.495	1.02039	8.14562
829	829	1	22.4246	1.47227	8.98908
830	830	1	22.8334	2.02897	9.57478
831	831	1	23.576	2.34896	10.2082
832	832	1	23.0033	2.3955	10.9733
833	833	1	22.8211	3.03224	10.2723
834	834	1	23.078	3.29142	11.1255
835	835	1	22.4355	4.04284	11.0195
836	836	1	22.0169	3.76678	10.1375
837	837	1	21.1242	3.67217	9.92717
838	838	1	21.396	2.68134	9.87985
839	839	1	22.0418	1.88898	10.1245